{"smiles": "c12ccccc1[P@@](=O)(C=C2)c1ccc(cc1)c1sc(c2sc(c3cnc(s3)c3scc4c3nccn4)nc2)nc1", "mol_features": {"fractioncsp3": 0.0, "no_count": 6, "num_aliphatic_rings": 1, "num_h_donors": 0, "num_h_accetors": 10, "num_rotatable_bonds": 5, "num_hetero_atoms": 11, "heavy_atom_count": 40, "ring_count": 8, "nhoh_count": 0, "num_aliphatic_carbocycles": 0, "num_aliphatic_hetercycles": 1, "num_aromatic_carbocycles": 2, "num_aromatic_heterocycles": 5, "num_aromatic_rings": 7}, "3d_coords": [["C", 9.314422, 0.240896, 0.654702], ["C", 10.155755, 0.400098, -0.452593], ["C", 10.227429, -0.618746, -1.406244], ["C", 9.46869, -1.782641, -1.262939], ["C", 8.618606, -1.945715, -0.162343], ["C", 8.546759, -0.936853, 0.7974], ["P", 7.504887, -0.816034, 2.314754], ["C", 8.252946, 0.828838, 2.709839], ["C", 9.123106, 1.2022, 1.750678], ["C", 5.810747, -0.438689, 1.703351], ["C", 4.716693, -1.134637, 2.240985], ["C", 3.426794, -0.874817, 1.789942], ["C", 3.187003, 0.087204, 0.787298], ["C", 4.294353, 0.781219, 0.252054], ["C", 5.583133, 0.521482, 0.703178], ["O", 7.537729, -1.901183, 3.329], ["H", 9.538212, -2.56759, -2.011689], ["H", 10.746296, 1.305947, -0.56847], ["H", 8.028272, -2.852679, -0.055042], ["H", 9.668651, 2.143983, 1.769609], ["H", 8.025459, 1.44511, 3.574368], ["H", 4.888465, -1.880082, 3.013449], ["H", 6.423962, 1.065913, 0.277055], ["H", 4.142326, 1.528169, -0.522982], ["H", 2.58821, -1.422036, 2.215906], ["N", -7.525749, 1.709189, -2.428636], ["C", -6.186789, 1.646889, -2.168165], ["C", -5.792048, 0.73511, -1.192324], ["S", -7.212304, -0.097948, -0.563763], ["C", -8.218011, 0.854126, -1.670389], ["C", -4.469233, 0.45076, -0.71071], ["S", -3.022764, 1.279589, -1.330708], ["C", -2.036748, 0.325157, -0.224607], ["C", -2.860448, -0.523035, 0.506942], ["N", -4.198153, -0.449353, 0.234972], ["C", -0.608312, 0.476263, -0.165339], ["S", 0.409805, -0.473742, 0.941046], ["C", 1.835234, 0.36089, 0.312179], ["C", 1.428622, 1.265676, -0.658257], ["N", 0.084313, 1.32635, -0.918176], ["H", 2.105089, 1.914931, -1.211403], ["H", -2.49863, -1.219992, 1.261691], ["H", -5.498621, 2.290821, -2.714503], ["C", -9.639595, 0.685537, -1.710621], ["S", -10.702966, 1.581426, -2.769236], ["C", -12.130829, 0.788769, -2.182213], ["C", -11.810163, -0.145246, -1.194825], ["C", -10.394992, -0.204919, -0.925901], ["N", -12.699026, -0.953625, -0.512391], ["C", -12.153762, -1.762717, 0.382434], ["C", -10.74134, -1.818258, 0.646786], ["N", -9.86105, -1.056916, 0.010415], ["H", -12.827351, -2.420828, 0.945409], ["H", -10.358919, -2.513568, 1.403046], ["H", 10.881176, -0.505112, -2.267457], ["H", -13.115142, 1.025723, -2.565964]], "dipole_moments": {"electron": [-40.041, 2.866, -2.572], "nucleus": [39.905, -2.243, 1.667], "total": [-0.137, 0.623, -0.905]}, "polarizations": {"electron": [[-63244.473, 1922.707, -7549.312], [0.0, -1548.38, 1017.167], [0.0, 0.0, -2830.915]], "nucleus": [[63089.616, -1894.011, 7520.7], [0.0, 1356.659, -1012.642], [0.0, 0.0, 2630.476]], "total": [[-154.856, 28.695, -28.612], [0.0, -191.72, 4.525], [0.0, 0.0, -200.439]]}, "loewdin": [-0.138, -0.104, -0.126, -0.132, -0.111, -0.172, 0.648, -0.222, -0.122, -0.227, -0.113, -0.106, -0.136, -0.092, -0.118, -0.27, 0.148, 0.149, 0.153, 0.147, 0.136, 0.159, 0.155, 0.149, 0.146, 0.1, -0.222, -0.382, 0.781, -0.412, -0.415, 0.75, -0.379, -0.221, 0.103, -0.422, 0.723, -0.32, -0.222, 0.104, 0.141, 0.142, 0.142, -0.339, 0.809, -0.332, -0.244, -0.205, 0.168, -0.199, -0.187, 0.159, 0.144, 0.145, 0.148, 0.138], "excited_states": {"singlet": [2.607, 3.236, 3.335, 4.012, 4.128, 4.167, 4.412, 4.479, 4.594, 4.68, 4.724, 4.786, 4.919, 4.92, 4.96, 5.077, 5.145, 5.197, 5.266, 5.359, 5.447, 5.467, 5.493, 5.514, 5.553, 5.575, 5.641, 5.697, 5.712, 5.756, 5.823, 5.898, 5.923, 5.972, 5.973, 5.985, 6.119, 6.125, 6.152, 6.176, 6.21, 6.257, 6.283, 6.416, 6.436, 6.446, 6.463, 6.484, 6.565, 6.58, 6.63, 6.653, 6.664, 6.683, 6.697, 6.753, 6.782, 6.812, 6.824, 6.856, 6.918, 6.922, 6.928, 6.94, 6.96, 6.989, 6.999, 7.009, 7.026, 7.064, 7.067, 7.078, 7.103, 7.134, 7.162, 7.17, 7.194, 7.218, 7.22, 7.223, 7.259, 7.274, 7.292, 7.319, 7.32, 7.33, 7.333, 7.346, 7.375, 7.386, 7.393, 7.397, 7.428, 7.447, 7.458, 7.486, 7.5, 7.512, 7.516, 7.561, 7.571, 7.601, 7.602, 7.615, 7.637, 7.66, 7.669, 7.677, 7.704, 7.712, 7.717, 7.725, 7.75, 7.786, 7.822, 7.854, 7.869, 7.876, 7.891, 7.908, 7.926, 7.94, 7.954, 7.969, 7.988, 7.989, 8.011, 8.014, 8.035, 8.042, 8.065, 8.075, 8.083, 8.096, 8.105, 8.108, 8.122, 8.14, 8.15, 8.162, 8.17, 8.193, 8.197, 8.201, 8.21, 8.227, 8.238, 8.246, 8.258, 8.261, 8.275, 8.284, 8.29, 8.296, 8.3, 8.304, 8.311, 8.331, 8.336, 8.365, 8.371, 8.384, 8.39, 8.396, 8.418, 8.43, 8.433, 8.438, 8.459, 8.466, 8.475, 8.479, 8.491, 8.501, 8.508, 8.515, 8.516, 8.527, 8.531, 8.551, 8.563, 8.589, 8.594, 8.606, 8.613, 8.639, 8.642, 8.645, 8.668, 8.682, 8.703, 8.707, 8.719, 8.729, 8.735, 8.763, 8.768, 8.77, 8.776, 8.791, 8.804, 8.811, 8.819, 8.832, 8.846, 8.853, 8.861, 8.866, 8.889, 8.905, 8.915, 8.916, 8.929, 8.947, 8.966, 8.97, 8.982, 8.986, 8.991, 8.995, 9.003, 9.006, 9.014, 9.021, 9.028, 9.034, 9.055, 9.058, 9.067, 9.068, 9.084, 9.087, 9.097, 9.101, 9.109, 9.11, 9.113, 9.12, 9.13, 9.137, 9.14, 9.162, 9.166, 9.176, 9.179, 9.182, 9.188, 9.201, 9.203, 9.207, 9.213, 9.223, 9.231, 9.235, 9.244, 9.252, 9.258, 9.269, 9.27, 9.274, 9.281, 9.285, 9.3, 9.306, 9.315, 9.322, 9.325, 9.336, 9.347, 9.357, 9.362, 9.366, 9.378, 9.384, 9.39, 9.395, 9.4, 9.405, 9.419, 9.431, 9.437, 9.44, 9.444, 9.453, 9.459, 9.464, 9.476, 9.482, 9.486, 9.492, 9.495, 9.503, 9.513, 9.524, 9.528, 9.541, 9.545, 9.55, 9.554, 9.575, 9.581, 9.593, 9.596, 9.605, 9.609, 9.616, 9.625, 9.637, 9.643, 9.652, 9.656, 9.666, 9.668, 9.677, 9.682, 9.69, 9.702, 9.707, 9.712, 9.723, 9.733, 9.739, 9.747, 9.749, 9.757, 9.758, 9.76, 9.771, 9.778, 9.781, 9.795, 9.796, 9.801, 9.809, 9.815, 9.825, 9.829, 9.833, 9.849, 9.856, 9.86, 9.875, 9.879, 9.881, 9.896, 9.899, 9.906, 9.91, 9.91, 9.914, 9.917, 9.921, 9.924, 9.932, 9.941, 9.948, 9.964, 9.967, 9.971, 9.976, 9.984, 9.989, 9.992, 9.993], "triplet": [2.077, 2.663, 3.313, 3.335, 3.531, 3.853, 3.952, 4.272, 4.483, 4.494, 4.514, 4.685, 4.69, 4.744, 4.775, 4.853, 4.871, 4.924, 4.958, 4.997, 5.078, 5.173, 5.212, 5.268, 5.343, 5.417, 5.427, 5.448, 5.469, 5.493, 5.52, 5.525, 5.569, 5.601, 5.661, 5.698, 5.829, 5.903, 5.931, 5.974, 6.125, 6.135, 6.156, 6.161, 6.178, 6.285, 6.316, 6.364, 6.405, 6.443, 6.465, 6.482, 6.514, 6.567, 6.582, 6.645, 6.654, 6.674, 6.688, 6.727, 6.749, 6.754, 6.767, 6.818, 6.828, 6.844, 6.915, 6.922, 6.94, 6.949, 6.989, 6.995, 7.028, 7.047, 7.07, 7.08, 7.086, 7.094, 7.162, 7.176, 7.184, 7.197, 7.197, 7.221, 7.221, 7.229, 7.265, 7.312, 7.32, 7.329, 7.333, 7.335, 7.363, 7.389, 7.405, 7.424, 7.45, 7.454, 7.484, 7.487, 7.502, 7.513, 7.557, 7.566, 7.583, 7.606, 7.615, 7.627, 7.642, 7.648, 7.666, 7.672, 7.693, 7.702, 7.716, 7.719, 7.743, 7.794, 7.824, 7.826, 7.879, 7.895, 7.902, 7.906, 7.943, 7.951, 7.974, 7.993, 8.002, 8.003, 8.014, 8.039, 8.058, 8.067, 8.075, 8.091, 8.1, 8.105, 8.115, 8.126, 8.127, 8.144, 8.151, 8.169, 8.184, 8.198, 8.203, 8.207, 8.21, 8.226, 8.237, 8.24, 8.245, 8.253, 8.262, 8.271, 8.277, 8.293, 8.299, 8.303, 8.304, 8.31, 8.33, 8.337, 8.341, 8.352, 8.372, 8.382, 8.399, 8.423, 8.426, 8.439, 8.44, 8.447, 8.471, 8.472, 8.473, 8.483, 8.494, 8.495, 8.526, 8.53, 8.544, 8.552, 8.563, 8.595, 8.6, 8.606, 8.631, 8.632, 8.645, 8.653, 8.667, 8.684, 8.689, 8.704, 8.735, 8.74, 8.748, 8.753, 8.776, 8.783, 8.801, 8.806, 8.817, 8.822, 8.824, 8.834, 8.845, 8.854, 8.861, 8.862, 8.874, 8.915, 8.922, 8.927, 8.931, 8.961, 8.965, 8.976, 8.979, 8.987, 8.997, 8.998, 9.006, 9.016, 9.025, 9.027, 9.041, 9.045, 9.056, 9.062, 9.066, 9.075, 9.076, 9.093, 9.099, 9.102, 9.11, 9.11, 9.116, 9.118, 9.131, 9.139, 9.152, 9.156, 9.168, 9.172, 9.175, 9.187, 9.198, 9.201, 9.204, 9.211, 9.218, 9.222, 9.236, 9.242, 9.249, 9.255, 9.26, 9.269, 9.271, 9.275, 9.28, 9.282, 9.287, 9.296, 9.302, 9.308, 9.311, 9.329, 9.338, 9.341, 9.345, 9.364, 9.368, 9.379, 9.384, 9.396, 9.404, 9.408, 9.412, 9.425, 9.429, 9.442, 9.445, 9.447, 9.469, 9.47, 9.478, 9.487, 9.487, 9.497, 9.498, 9.507, 9.515, 9.525, 9.534, 9.545, 9.551, 9.553, 9.564, 9.575, 9.59, 9.595, 9.599, 9.61, 9.61, 9.627, 9.63, 9.636, 9.648, 9.668, 9.669, 9.676, 9.683, 9.689, 9.701, 9.704, 9.714, 9.73, 9.731, 9.737, 9.753, 9.754, 9.757, 9.765, 9.769, 9.776, 9.778, 9.78, 9.791, 9.794, 9.798, 9.803, 9.808, 9.816, 9.824, 9.829, 9.838, 9.843, 9.86, 9.869, 9.877, 9.88, 9.897, 9.909, 9.911, 9.917, 9.92, 9.921, 9.924, 9.928, 9.935, 9.944, 9.946, 9.953, 9.958, 9.972, 9.973, 9.977, 9.982, 9.993]}, "mo_energies": [-2422.354, -2421.827, -2421.826, -2421.699, -2101.313, -521.963, -393.61, -393.569, -392.957, -392.931, -392.903, -282.393, -282.387, -282.329, -281.732, -281.635, -281.56, -281.524, -281.491, -281.43, -281.362, -281.343, -281.238, -281.213, -281.141, -281.051, -280.96, -280.738, -280.695, -280.456, -280.456, -280.43, -280.395, -280.38, -280.38, -280.357, -280.344, -280.322, -280.292, -280.283, -220.808, -220.333, -220.317, -220.17, -182.824, -165.106, -164.991, -164.973, -164.635, -164.623, -164.53, -164.512, -164.479, -164.469, -164.45, -164.361, -164.304, -132.549, -132.539, -132.484, -30.36, -29.844, -29.645, -29.456, -29.347, -28.414, -27.584, -27.366, -27.196, -25.777, -25.673, -25.493, -25.294, -24.777, -24.365, -24.22, -24.107, -23.983, -23.737, -23.217, -23.1, -22.658, -21.656, -21.344, -20.933, -20.64, -20.234, -20.065, -19.969, -19.963, -19.487, -18.815, -18.643, -18.365, -18.124, -17.872, -17.714, -17.497, -17.279, -16.907, -16.693, -16.611, -16.199, -16.06, -15.63, -15.612, -15.51, -15.44, -15.389, -15.235, -15.024, -14.936, -14.792, -14.695, -14.663, -14.644, -14.592, -14.523, -14.352, -14.089, -14.042, -13.717, -13.612, -13.464, -13.377, -13.079, -13.029, -12.926, -12.823, -12.739, -12.693, -12.54, -12.51, -12.415, -12.324, -12.043, -11.657, -11.65, -11.429, -10.85, -10.702, -10.415, -10.407, -10.302, -10.209, -10.163, -10.114, -10.094, -9.853, -9.809, -9.789, -9.757, -9.467, -8.937, -8.361]}